#(C) 2010 by Fachinformationszentrum Karlsruhe. All rights reserved.
data_161341-ICSD
_database_code_ICSD 161341
_audit_creation_date 2009-02-01
_chemical_name_systematic 'Barium titanate - nanocrystalline'
_chemical_formula_structural 'Ba (Ti O3)'
_chemical_formula_sum 'Ba1 O3 Ti1'
_exptl_crystal_density_diffrn 6.09
_cell_measurement_temperature 293.
_cell_measurement_pressure 101.325
#Default value included by FIZ Karlsruhe
_publ_section_title
'Crystal structure of dense nanocrystalline Ba Ti O3 ceramics'
loop_
_citation_id
_citation_journal_full
_citation_year
_citation_journal_volume
_citation_page_first
_citation_page_last
_citation_journal_id_ASTM
primary 'Materials Chemistry and Physics' 2008 111 209 212 MCHPDR
loop_
_publ_author_name
'Xiao, C.J.'
'Jin, C.Q.'
'Wang, X.H.'
_cell_length_a 4.0094(3)
_cell_length_b 5.6214(9)
_cell_length_c 5.6386(3)
_cell_angle_alpha 90.
_cell_angle_beta 90.
_cell_angle_gamma 90.
_cell_volume 127.09
_cell_formula_units_Z 2
_symmetry_space_group_name_H-M 'A m m 2'
_symmetry_Int_Tables_number 38
_refine_ls_R_factor_all 0.121
loop_
_symmetry_equiv_pos_site_id
_symmetry_equiv_pos_as_xyz
1 'x, -y, z'
2 '-x, y, z'
3 '-x, -y, z'
4 'x, y, z'
5 'x, -y+1/2, z+1/2'
6 '-x, y+1/2, z+1/2'
7 '-x, -y+1/2, z+1/2'
8 'x, y+1/2, z+1/2'
loop_
_atom_type_symbol
_atom_type_oxidation_number
Ba2+ 2
Ti4+ 4
O2- -2
loop_
_atom_site_label
_atom_site_type_symbol
_atom_site_symmetry_multiplicity
_atom_site_Wyckoff_symbol
_atom_site_fract_x
_atom_site_fract_y
_atom_site_fract_z
_atom_site_B_iso_or_equiv
_atom_site_occupancy
_atom_site_attached_hydrogens
Ba1 Ba2+ 2 a 0 0 0 0.176(3) 1. 0
Ti1 Ti4+ 2 b 0.5 0 0.5100(2) 0.016(1) 1. 0
O1 O2- 2 b 0.5 0.5 0.4900(2) 0.045(7) 1. 0
O2 O2- 4 e 0.5 0.7525(7) 0.7396(6) 0.028(2) 1. 0
#End of data_161341-ICSD
