#------------------------------------------------------------------------------
#$Date: 2013-03-29 10:50:04 +0000 (Fri, 29 Mar 2013) $
#$Revision: 77877 $
#$URL: file:///home/coder/svn-repositories/cod/cif/9/00/85/9008534.cif $
#------------------------------------------------------------------------------
#
# This file is available in the Crystallography Open Database (COD),
# http://www.crystallography.net/. The original data for this entry
# were provided the American Mineralogist Crystal Structure Database,
# http://rruff.geo.arizona.edu/AMS/amcsd.php
#
# The file may be used within the scientific community so long as
# proper attribution is given to the journal article from which the
# data were obtained.
#
data_9008534
loop_
_publ_author_name
'Wyckoff, R. W. G.'
_publ_section_title
;
 Second edition. Interscience Publishers, New York, New York
 Sample at T = 5 K
 Body centered cubic, bcc, structure
;
_journal_name_full               'Crystal Structures'
_journal_page_first              7
_journal_page_last               83
_journal_volume                  1
_journal_year                    1963
_chemical_formula_sum            Eu
_chemical_name_common            Europium
_space_group_IT_number           229
_symmetry_space_group_name_Hall  '-I 4 2 3'
_symmetry_space_group_name_H-M   'I m -3 m'
_cell_angle_alpha                90
_cell_angle_beta                 90
_cell_angle_gamma                90
_cell_length_a                   4.551
_cell_length_b                   4.551
_cell_length_c                   4.551
_cell_volume                     94.258
_diffrn_ambient_temperature      5
_exptl_crystal_density_diffrn    5.354
_[local]_cod_cif_authors_sg_H-M  'I m 3 m'
_cod_database_code               9008534
_amcsd_database_code             AMCSD#0010865
loop_
_symmetry_equiv_pos_as_xyz
x,y,z
1/2+x,1/2+y,1/2+z
z,-x,y
1/2+z,1/2-x,1/2+y
-y,z,-x
1/2-y,1/2+z,1/2-x
x,-y,z
1/2+x,1/2-y,1/2+z
-z,x,-y
1/2-z,1/2+x,1/2-y
y,-z,x
1/2+y,1/2-z,1/2+x
-x,y,-z
1/2-x,1/2+y,1/2-z
x,-z,-y
1/2+x,1/2-z,1/2-y
-z,y,x
1/2-z,1/2+y,1/2+x
y,-x,-z
1/2+y,1/2-x,1/2-z
-x,z,y
1/2-x,1/2+z,1/2+y
z,-y,-x
1/2+z,1/2-y,1/2-x
-y,x,z
1/2-y,1/2+x,1/2+z
x,z,y
1/2+x,1/2+z,1/2+y
-z,-y,-x
1/2-z,1/2-y,1/2-x
y,x,z
1/2+y,1/2+x,1/2+z
-x,-z,-y
1/2-x,1/2-z,1/2-y
z,y,x
1/2+z,1/2+y,1/2+x
-y,-x,-z
1/2-y,1/2-x,1/2-z
z,x,-y
1/2+z,1/2+x,1/2-y
-y,-z,x
1/2-y,1/2-z,1/2+x
x,y,-z
1/2+x,1/2+y,1/2-z
-z,-x,y
1/2-z,1/2-x,1/2+y
y,z,-x
1/2+y,1/2+z,1/2-x
-x,-y,z
1/2-x,1/2-y,1/2+z
-z,x,y
1/2-z,1/2+x,1/2+y
y,-z,-x
1/2+y,1/2-z,1/2-x
-x,y,z
1/2-x,1/2+y,1/2+z
z,-x,-y
1/2+z,1/2-x,1/2-y
-y,z,x
1/2-y,1/2+z,1/2+x
x,-y,-z
1/2+x,1/2-y,1/2-z
-x,z,-y
1/2-x,1/2+z,1/2-y
z,-y,x
1/2+z,1/2-y,1/2+x
-y,x,-z
1/2-y,1/2+x,1/2-z
x,-z,y
1/2+x,1/2-z,1/2+y
-z,y,-x
1/2-z,1/2+y,1/2-x
y,-x,z
1/2+y,1/2-x,1/2+z
-x,-z,y
1/2-x,1/2-z,1/2+y
z,y,-x
1/2+z,1/2+y,1/2-x
-y,-x,z
1/2-y,1/2-x,1/2+z
x,z,-y
1/2+x,1/2+z,1/2-y
-z,-y,x
1/2-z,1/2-y,1/2+x
y,x,-z
1/2+y,1/2+x,1/2-z
-z,-x,-y
1/2-z,1/2-x,1/2-y
y,z,x
1/2+y,1/2+z,1/2+x
-x,-y,-z
1/2-x,1/2-y,1/2-z
z,x,y
1/2+z,1/2+x,1/2+y
-y,-z,-x
1/2-y,1/2-z,1/2-x
loop_
_atom_site_label
_atom_site_fract_x
_atom_site_fract_y
_atom_site_fract_z
Eu 0.00000 0.00000 0.00000
