#------------------------------------------------------------------------------
#$Date: 2012-02-28 15:44:07 +0000 (Tue, 28 Feb 2012) $
#$Revision: 35913 $
#$URL: file:///home/coder/svn-repositories/cod/cif/9/01/16/9011648.cif $
#------------------------------------------------------------------------------
#
# This file is available in the Crystallography Open Database (COD),
# http://www.crystallography.net/. The original data for this entry
# were provided the American Mineralogist Crystal Structure Database,
# http://rruff.geo.arizona.edu/AMS/amcsd.php
#
# The file may be used within the scientific community so long as
# proper attribution is given to the journal article from which the
# data were obtained.
#
data_9011648
loop_
_publ_author_name
'Keller, R.'
'Holzapfel, W. B.'
'Schulz, H.'
_publ_section_title
;
 Effect of pressure on the atom positions in Se and Te
 Locality: synthetic
 Note: known as alpha phase with trigonal structure
;
_journal_name_full               'Physical Review B'
_journal_page_first              4404
_journal_page_last               4412
_journal_volume                  16
_journal_year                    1977
_chemical_formula_sum            Se
_chemical_name_mineral           Selenium
_space_group_IT_number           152
_symmetry_space_group_name_Hall  'P 31 2"'
_symmetry_space_group_name_H-M   'P 31 2 1'
_cell_angle_alpha                90
_cell_angle_beta                 90
_cell_angle_gamma                120
_cell_length_a                   4.368
_cell_length_b                   4.368
_cell_length_c                   4.958
_cell_volume                     81.922
_exptl_crystal_density_diffrn    4.801
_cod_database_code               9011648
_amcsd_database_code             AMCSD#0011683
loop_
_symmetry_equiv_pos_as_xyz
x,y,z
y,x,-z
-y,x-y,1/3+z
-x,-x+y,1/3-z
-x+y,-x,2/3+z
x-y,-y,2/3-z
loop_
_atom_site_label
_atom_site_fract_x
_atom_site_fract_y
_atom_site_fract_z
Se 0.22540 0.00000 0.33333
